     778
 i =       22, E =     -2256.7622878844
 Si         8.0691337073       18.7017580257       18.7061646722
 Si         8.0290620348       18.9496311222       24.4082657874
 Si         8.0283346878       24.4045741244       18.9543211548
 Si         8.0778476463       24.6641595525       24.6685030958
 Si        13.5126544625       13.5045973011       18.9737525480
 Si        13.4918362838       13.4835031793       24.4070204068
 Si        13.5115096469       18.9701311575       13.5085229506
 Si        13.4948377842       18.9558604250       18.9595125903
 Si        13.4668914006       18.9524197031       24.4126593291
 Si        13.4771207766       18.9523460314       29.8627956076
 Si        13.4899662002       24.4036622470       13.4875462831
 Si        13.4660810234       24.4091962588       18.9561812577
 Si        13.4981251891       24.4175871993       24.4211875889
 Si        13.5220990560       24.3844601474       29.8883747631
 Si        13.4758755429       29.8596957254       18.9561754209
 Si        13.5214053693       29.8847422492       24.3883298469
 Si        18.7137323810        8.0612698850       18.7093790225
 Si        18.9635759686        8.0222131137       24.4134392002
 Si        18.9767031789       13.5050973241       13.5083146035
 Si        18.9633796463       13.4878497138       18.9594036159
 Si        18.9605161577       13.4600737631       24.4127931838
 Si        18.9604576975       13.4706932890       29.8630166268
 Si        18.7093137022       18.7041585155        8.0648325701
 Si        18.9622096625       18.9563975923       13.4910267995
 Si        18.9571824996       18.9507294622       18.9535880841
 Si        18.9562239891       18.9494163064       24.4222707245
 Si        18.9393996897       18.9323183376       29.9018402271
 Si        18.9563609458       24.4064617277        8.0250871805
 Si        18.9585072865       24.4098500582       13.4629039236
 Si        18.9553981338       24.4195023183       18.9522704917
 Si        18.9482485992       24.4115168374       24.4144579212
 Si        18.9657749632       24.4127314525       29.9000930875
 Si        18.9579731069       29.8603613641       13.4734229331
 Si        18.9378613441       29.8989513015       18.9352944746
 Si        18.9650975566       29.8970222143       24.4160185495
 Si        18.9634970034       29.8658053105       29.8690181330
 Si        24.4172061383        8.0224248050       18.9582910184
 Si        24.6764044748        8.0730411256       24.6717476605
 Si        24.4097075607       13.4842594297       13.4865912540
 Si        24.4163375946       13.4603077582       18.9555637204
 Si        24.4253493191       13.4925439597       24.4207422514
 Si        24.3928319160       13.5164667643       29.8880837978
 Si        24.4102899761       18.9516123177        8.0242844489
 Si        24.4150688014       18.9533265401       13.4621934041
 Si        24.4256189285       18.9497002502       18.9516263064
 Si        24.4185397248       18.9422391382       24.4139623996
 Si        24.4204201106       18.9595289596       29.8996553504
 Si        24.6710797892       24.6673200075        8.0741840269
 Si        24.4233154609       24.4185955851       13.4940826891
 Si        24.4176240298       24.4118823322       18.9441861637
 Si        24.4155047994       24.4091522663       24.4113019993
 Si        24.4127227871       24.4058768112       29.8575365097
 Si        24.3902380420       29.8858525178       13.5182195887
 Si        24.4188092554       29.8974364945       18.9616508973
 Si        24.4118934790       29.8553836202       24.4081718554
 Si        29.8661256193       13.4708302000       18.9545050716
 Si        29.8925530572       13.5162284326       24.3866696237
 Si        29.8648431179       18.9534039404       13.4713425402
 Si        29.9050917434       18.9324350960       18.9334257973
 Si        29.9041002258       18.9594132003       24.4144053140
 Si        29.8740580845       18.9579583305       29.8676673154
 Si        29.8904946441       24.3854363944       13.5169311139
 Si        29.9031749501       24.4131068339       18.9603877310
 Si        29.8623095177       24.4059140540       24.4071746445
 Si        29.8722480644       29.8663130650       18.9590876442
 Si         8.0518088721       15.9781129210       21.4402282275
 Si         8.0507274381       21.4362401938       15.9830151971
 Si         8.0449001666       21.6796599398       21.6838793600
 Si         8.0558409155       21.9246641229       27.3834775237
 Si         8.0551691889       27.3795449794       21.9293522775
 Si        13.4988438587       10.7681322751       21.6981491686
 Si        13.5188793018       16.2375196454       16.2413248934
 Si        13.4921922524       16.2183708048       21.6877003518
 Si        13.4696133690       16.2196424440       27.1289052102
 Si        13.4965898816       21.6948259551       10.7723668597
 Si        13.4912636817       21.6841915234       16.2221743951
 Si        13.4604586745       21.6847011961       21.6883076397
 Si        13.4903767137       21.6808225496       27.1502413520
 Si        13.4922911090       21.6529222383       32.6233681927
 Si        13.4679888535       27.1255950042       16.2235584820
 Si        13.4897274162       27.1468244749       21.6845558600
 Si        13.5387287304       27.1423534717       27.1461256232
 Si        13.4910378075       32.6199696421       21.6569166807
 Si        18.9765956197       10.7934214045       16.2397230584
 Si        18.9503812748       10.7175964677       21.6763050539
 Si        18.9750309712       10.7187678676       27.1381582859
 Si        18.9752928921       16.2366544696       10.7969255059
 Si        18.9613394585       16.2206330899       16.2236537015
 Si        18.9600835440       16.2136346210       21.6911154778
 Si        18.9550046047       16.2098361021       27.1450268439
 Si        18.9226193820       16.1803915212       32.6178159923
 Si        18.9480946838       21.6732089535       10.7204232258
 Si        18.9590782263       21.6882935347       16.2165707378
 Si        18.9537525857       21.6817520860       21.6845831888
 Si        18.9535259358       21.6760689631       27.1645246450
 Si        18.9478262440       21.6750451858       32.6183819935
 Si        18.9721320395       27.1352599439       10.7216303089
 Si        18.9533572639       27.1422163155       16.2126175247
 Si        18.9527800570       27.1616465712       21.6790755557
 Si        18.9518520814       27.1424281855       27.1456193125
 Si        18.9851147485       27.1478123094       32.6254933957
 Si        18.9204660985       32.6149842957       16.1833874686
 Si        18.9464546178       32.6154598320       21.6783311334
 Si        18.9843923903       32.6223028525       27.1511782564
 Si        24.3941292494       10.7217783161       16.2200505066
 Si        24.4364839423       10.7215028455       21.7022483437
 Si        24.4163937517       10.8078330324       27.1451215355
 Si        24.3927045760       16.2176196260       10.7237254147
 Si        24.4224683364       16.2159607285       16.2180381750
 Si        24.4218037458       16.2113707294       21.6822350356
 Si        24.4174130722       16.2220359272       27.1607665305
 Si        24.4095003438       16.2363673946       32.6152196230
 Si        24.4341434756       21.6999122757       10.7233516415
 Si        24.4207598807       21.6801971193       16.2131477264
 Si        24.4211199707       21.6781926538       21.6802163729
 Si        24.4148196184       21.6736625788       27.1449096610
 Si        24.4404175433       21.6979412179       32.6297936491
 Si        24.4135178658       27.1429745037       10.8091519000
 Si        24.4156534652       27.1586140048       16.2238932383
 Si        24.4139591263       27.1427457209       21.6757983040
 Si        24.4096708714       27.1370046921       27.1392742905
 Si        24.4069906451       32.6130414706       16.2383741277
 Si        24.4388638389       32.6275256314       21.7002934806
 Si        29.8730882099       10.7685037300       21.6689562738
 Si        29.8467193655       16.2042969184       16.2051334795
 Si        29.9028435378       16.2125786081       21.6691273479
 Si        29.8880990966       16.2561985478       27.1292604952
 Si        29.8706022822       21.6678825959       10.7687704951
 Si        29.9018053218       21.6679551904       16.2133846738
 Si        29.9093278364       21.6850844723       21.6862399589
 Si        29.8754878150       21.6698887565       27.1466946711
 Si        29.8862322496       27.1279537562       16.2571172495
 Si        29.8746284915       27.1452495993       21.6710217821
 Si         9.3796719772       14.8455076733       23.0197512633
 Si         9.3738183498       20.2964230447       17.5653005710
 Si         9.3860288297       20.3188486937       23.0572881305
 Si         9.3812922671       20.3404934133       28.5123689452
 Si         9.3881621694       25.7587692354       17.5967921230
 Si         9.3862829504       25.8139028639       23.0830392187
 Si        14.8548796749        9.3718327162       23.0201509410
 Si        14.8649919193       14.8575528185       17.5950631359
 Si        14.8595486604       14.8517648053       23.0526616490
 Si        14.8594474598       14.8517064621       28.4656069036
 Si        14.8555666470       20.3256056192       12.1299773828
 Si        14.8586933321       20.3213246536       17.5902517918
 Si        14.8398781567       20.3183874202       23.0511946923
 Si        14.8544521518       20.3133176602       28.5140491175
 Si        14.6207549002       20.0681484121       33.9484874588
 Si        14.8726952532       25.7394237850       12.1174821486
 Si        14.8424936986       25.7732948642       17.5880875033
 Si        14.8590192844       25.7849338163       23.0503184906
 Si        14.8755288874       25.7742395932       28.5356604915
 Si        14.8581912125       31.1880179336       17.5896670098
 Si        14.8658549321       31.2758860731       23.0311927108
 Si        20.3047711494        9.3673733780       17.5651585492
 Si        20.3275677105        9.3794681174       23.0574601527
 Si        20.3496769771        9.3749792627       28.5129744264
 Si        20.3315580080       14.8496140487       12.1295770671
 Si        20.3281458465       14.8522814412       17.5899659237
 Si        20.3259818452       14.8333485377       23.0511231560
 Si        20.3211307862       14.8480641304       28.5140272957
 Si        20.0761350743       14.6144283445       33.9486639784
 Si        20.3154287695       20.3101519908       12.0946490980
 Si        20.3231567929       20.3171440720       17.5829584370
 Si        20.3198139248       20.3132942621       23.0503314827
 Si        20.3167071143       20.3098004877       28.5436806852
 Si        20.3174772447       20.3102531869       33.9593031603
 Si        20.3324308933       25.7832145160       12.1015918300
 Si        20.3209018560       25.7841743721       17.5826500170
 Si        20.3129919260       25.7812027772       23.0445880333
 Si        20.3170711339       25.7757675836       28.5126888150
 Si        20.5642447497       26.0145471727       33.9532207321
 Si        20.3329474932       31.2276900096       12.1317254035
 Si        20.3010419252       31.2738850506       17.5688115478
 Si        20.3278542981       31.2771845036       23.0551965485
 Si        20.3063140265       31.2255997336       28.5068729346
 Si        25.7661692985        9.3825065478       17.5958301167
 Si        25.8223219943        9.3805641681       23.0827258153
 Si        25.7447955796       14.8674735164       12.1162683273
 Si        25.7797834580       14.8369823453       17.5870972643
 Si        25.7921849342       14.8534334332       23.0494761521
 Si        25.7823433095       14.8698945412       28.5350160844
 Si        25.7878301910       20.3276760900       12.1006947384
 Si        25.7898354334       20.3154612773       17.5818283874
 Si        25.7879360012       20.3071005379       23.0439112028
 Si        25.7832386304       20.3109227602       28.5121051374
 Si        26.0225750834       20.5577010575       33.9526911408
 Si        25.7961328222       25.7917731945       12.1557831960
 Si        25.7850503714       25.7794889357       17.5807176827
 Si        25.7806288368       25.7743548678       23.0421735404
 Si        25.7637798517       25.7570655411       28.4849298463
 Si        25.7831286572       31.2736551203       17.6100051832
 Si        25.7644801657       31.2009236709       23.0276979129
 Si        31.1936676212       14.8532514527       17.5875975948
 Si        31.2832601068       14.8607194920       23.0291716826
 Si        31.2316889356       20.3286456731       12.1293767243
 Si        31.2796307988       20.2957452859       17.5666584633
 Si        31.2839123579       20.3221895304       23.0533198142
 Si        31.2336052082       20.3008878208       28.5052720493
 Si        31.2791114430       25.7776082720       17.6086763405
 Si        31.2080092026       25.7583522084       23.0267427538
 Si         9.3742980104       17.5609429773       20.3005122486
 Si         9.3892379003       17.5923638079       25.7624090268
 Si         9.3782008573       23.0159098963       14.8501928791
 Si         9.3856425133       23.0533822504       20.3230344078
 Si         9.3866662018       23.0787892623       25.8179414033
 Si         9.3802288197       28.5085701057       20.3449486916
 Si        14.8572554102       12.1262071738       20.3289445928
 Si        14.8750912032       12.1138806431       25.7427913114
 Si        14.8643752208       17.5915896233       14.8612074211
 Si        14.8591690700       17.5867274300       20.3246934581
 Si        14.8437309242       17.5844851532       25.7765342840
 Si        14.8596942900       17.5861894296       31.1910572836
 Si        14.8521403133       23.0166475342        9.3754403052
 Si        14.8581571228       23.0493985571       14.8554145902
 Si        14.8394703853       23.0478549989       20.3218863686
 Si        14.8593536069       23.0468084842       25.7882885753
 Si        14.8668604409       23.0274177564       31.2792935741
 Si        14.8573953093       28.4623447193       14.8552924624
 Si        14.8534483376       28.5108844314       20.3168965369
 Si        14.8751628375       28.5321116931       25.7778875346
 Si        14.6183504999       33.9449201921       20.0711413305
 Si        20.3321428507       12.1266315715       14.8526076597
 Si        20.3173319935       12.0919957316       20.3131006786
 Si        20.3349357408       12.0989675086       25.7859360830
 Si        20.3356758729       12.1295708124       31.2305502092
 Si        20.3026345112       17.5620598555        9.3700779708
 Si        20.3276043333       17.5871813425       14.8550568572
 Si        20.3236510902       17.5803285481       20.3197888247
 Si        20.3221412033       17.5800725470       25.7867953478
 Si        20.3029509793       17.5660050493       31.2765887886
 Si        20.3248052945       23.0546611702        9.3820536651
 Si        20.3244658993       23.0484253449       14.8359560492
 Si        20.3193833190       23.0477187840       20.3159184247
 Si        20.3133578382       23.0418259330       25.7839435256
 Si        20.3289614982       23.0520758169       31.2800092116
 Si        20.3463095487       28.5100285073        9.3774439517
 Si        20.3190168077       28.5114980920       14.8506237263
 Si        20.3155434273       28.5409795735       20.3125742259
 Si        20.3166838882       28.5096761670       25.7787936808
 Si        20.3066080945       28.5037711203       31.2286255559
 Si        20.0728393197       33.9455867359       14.6163186457
 Si        20.3186979376       33.9565385188       20.3162992954
 Si        20.5623470904       33.9505930170       26.0169677005
 Si        25.7456464273       12.1145086922       14.8695787396
 Si        25.7896440574       12.0990902290       20.3297211663
 Si        25.7985952125       12.1546700642       25.7937658812
 Si        25.7641279926       17.5936999349        9.3840931115
 Si        25.7791332522       17.5852234398       14.8386582113
 Si        25.7903564722       17.5802403988       20.3172038529
 Si        25.7863983583       17.5790628942       25.7814298285
 Si        25.7852649830       17.6081892208       31.2756567242
 Si        25.8194522602       23.0804533098        9.3821322292
 Si        25.7906400006       23.0476501246       14.8548788972
 Si        25.7874685636       23.0420728923       20.3088460826
 Si        25.7810548508       23.0402703299       25.7763161703
 Si        25.7655465538       23.0257965648       31.2031386225
 Si        25.7801387095       28.5330235943       14.8714560414
 Si        25.7819977583       28.5100037164       20.3127484693
 Si        25.7633381146       28.4829095502       25.7590993178
 Si        26.0198965896       33.9508732683       20.5590939411
 Si        31.2336031268       12.1293458172       20.3295057709
 Si        31.1930284780       17.5869265740       14.8536372101
 Si        31.2801549423       17.5660343974       20.2965928817
 Si        31.2805055214       17.6080103051       25.7787338103
 Si        31.2816947952       23.0281922909       14.8611797365
 Si        31.2834286241       23.0522835117       20.3230104369
 Si        31.2084207214       23.0257947663       25.7595268136
 Si        31.2322246412       28.5040682837       20.3017435252
 Si        10.7767326638       13.4897501392       21.6982737079
 Si        10.8006684007       18.9689811197       16.2400210478
 Si        10.7244020754       18.9418516649       21.6761242323
 Si        10.7254916186       18.9662144556       27.1377246166
 Si        10.7274631811       24.3869314041       16.2208307919
 Si        10.7274307598       24.4284910679       21.7026021223
 Si        10.8130190666       24.4079065315       27.1454071952
 Si        10.7733155348       29.8655311499       21.6706333740
 Si        15.9911269704        8.0430327171       21.4441800619
 Si        16.2449998916       13.5115615120       16.2413723629
 Si        16.2263818869       13.4846606841       21.6877012647
 Si        16.2278913563       13.4621970107       27.1291422676
 Si        16.2424710180       18.9695645817       10.7971015263
 Si        16.2270476510       18.9547781474       16.2237923969
 Si        16.2204648506       18.9528292169       21.6911998542
 Si        16.2165840595       18.9475308254       27.1450329048
 Si        16.1870828389       18.9150002190       32.6177604633
 Si        16.2228286978       24.3876562963       10.7246494777
 Si        16.2216059294       24.4163826804       16.2188374967
 Si        16.2171303471       24.4148513966       21.6828861434
 Si        16.2279146152       24.4096845590       27.1612591038
 Si        16.2422751589       24.4011105929       32.6156459221
 Si        16.2092178163       29.8411678458       16.2070787456
 Si        16.2179734573       29.8959256195       21.6709499735
 Si        16.2616777497       29.8802490544       27.1307829311
 Si        21.4478285684        8.0433742239       15.9860171077
 Si        21.6926551531        8.0385222790       21.6881520970
 Si        21.9375765493        8.0508986714       27.3875998074
 Si        21.7006266860       13.4906598453       10.7718100715
 Si        21.6909771021       13.4850334372       16.2217181508
 Si        21.6924729298       13.4541688454       21.6882156312
 Si        21.6888582673       13.4843068810       27.1501997757
 Si        21.6613706206       13.4865303997       32.6236027488
 Si        21.6782702284       18.9429412584       10.7201196530
 Si        21.6941912194       18.9532646421       16.2162893128
 Si        21.6883663747       18.9475269766       21.6843879355
 Si        21.6832242305       18.9470445560       27.1643627770
 Si        21.6826692070       18.9411279740       32.6182573181
 Si        21.7044308599       24.4297644518       10.7237938604
 Si        21.6855445546       24.4153712403       16.2135844492
 Si        21.6841774279       24.4148008106       21.6805543134
 Si        21.6800265864       24.4078272544       27.1452039267
 Si        21.7046897856       24.4327449097       32.6300937763
 Si        21.6720433770       29.8668836464       10.7705905281
 Si        21.6732076181       29.8964662152       16.2150828090
 Si        21.6908761418       29.9029862202       21.6877683554
 Si        21.6755429175       29.8678872128       27.1480223064
 Si        27.3913647061        8.0507759164       21.9321131985
 Si        27.1320434680       13.4626896158       16.2223363409
 Si        27.1540316195       13.4843775083       21.6835085965
 Si        27.1505669368       13.5334164475       27.1452837598
 Si        27.1395044318       18.9675529124       10.7202166507
 Si        27.1477143725       18.9481846633       16.2114221766
 Si        27.1682466134       18.9471267115       21.6779752683
 Si        27.1500237496       18.9460615371       27.1447412609
 Si        27.1562273318       18.9791255367       32.6246353915
 Si        27.1469954740       24.4093705491       10.8085752272
 Si        27.1638637359       24.4103762240       16.2232745550
 Si        27.1489866543       24.4080223539       21.6753433379
 Si        27.1438657129       24.4034141771       27.1388222901
 Si        27.1332417853       29.8810640003       16.2578813979
 Si        27.1514341432       29.8681433612       21.6714736867
 Si        32.6273706690       13.4862124950       21.6545011722
 Si        32.6204961074       18.9153277311       16.1805850397
 Si        32.6220840948       18.9411035200       21.6761185666
 Si        32.6298897724       18.9788466710       27.1492525604
 Si        32.6182588073       24.4018077251       16.2364725337
 Si        32.6337830836       24.4328052364       21.6983706946
 Si        10.8011879201       16.2358163048       18.9729578275
 Si        10.7287421406       16.2165079933       24.3906098965
 Si        10.7751469123       21.6944952853       13.4942803846
 Si        10.7239629037       21.6722564196       18.9459423868
 Si        10.7277875628       21.6985821609       24.4322771005
 Si        10.7742862152       21.6663561065       29.8692858135
 Si        10.7244728549       27.1342007014       18.9704522271
 Si        10.8126761000       27.1414530074       24.4120289218
 Si        16.2441266878       10.7932054203       18.9729748736
 Si        16.2254195632       10.7213026161       24.3909231056
 Si        16.2443027964       16.2378116126       13.5152794805
 Si        16.2275911476       16.2204043545       18.9580520658
 Si        16.2229376870       16.2154476947       24.4194845829
 Si        16.2110805941       16.2037664050       29.8443493245
 Si        15.9852669939       21.4376448329        8.0474643721
 Si        16.2248221689       21.6844973835       13.4881266053
 Si        16.2200112455       21.6880209266       18.9561423003
 Si        16.2174995187       21.6795646368       24.4180537984
 Si        16.2189357307       21.6673958325       29.8990866659
 Si        16.2256390253       27.1259647012       13.4655235772
 Si        16.2154343638       27.1419050042       18.9509169946
 Si        16.2275870372       27.1579413294       24.4131408116
 Si        16.2620532508       27.1272248189       29.8837232759
 Si        16.1855680263       32.6146906687       18.9185380452
 Si        16.2412811646       32.6122835162       24.4048162802
 Si        21.7011050887       10.7687509645       13.4937529675
 Si        21.6802249360       10.7177368049       18.9456801891
 Si        21.7071475478       10.7214529089       24.4323890592
 Si        21.6749043665       10.7687322510       29.8696926058
 Si        21.4424814081       15.9797488285        8.0470662457
 Si        21.6903756708       16.2190487162       13.4876286941
 Si        21.6947259271       16.2138056173       18.9558004283
 Si        21.6869033460       16.2112840524       24.4178621418
 Si        21.6751997898       16.2126213376       29.8989420999
 Si        21.6871422218       21.6828382744        8.0408948860
 Si        21.6907154919       21.6855327974       13.4565283156
 Si        21.6878894834       21.6819554628       18.9499264391
 Si        21.6845821219       21.6780761556       24.4172959293
 Si        21.6920924181       21.6851052504       29.9055179267
 Si        21.9309570902       27.3817242645        8.0520648833
 Si        21.6865762837       27.1477237139       13.4865564792
 Si        21.6819880706       27.1618856619       18.9494934743
 Si        21.6796523177       27.1425913634       24.4104673280
 Si        21.6759537209       27.1450308819       29.8708915682
 Si        21.6585745600       32.6209064909       13.4886344922
 Si        21.6807375687       32.6157054654       18.9437965742
 Si        21.7035779388       32.6273673444       24.4358254240
 Si        27.1415080065       10.7189343699       18.9694248751
 Si        27.1494868353       10.8077787836       24.4111750230
 Si        27.1312695921       16.2205770726       13.4641262244
 Si        27.1482818145       16.2101023591       18.9497207142
 Si        27.1653207763       16.2219844451       24.4120576513
 Si        27.1354495145       16.2564282178       29.8828436398
 Si        27.3849822199       21.9268501585        8.0508610752
 Si        27.1523718792       21.6818452649       13.4855502472
 Si        27.1677418343       21.6764137521       18.9485516912
 Si        27.1494320745       21.6737478058       24.4097234008
 Si        27.1526513201       21.6698162694       29.8701569648
 Si        27.1481404776       27.1434655704       13.5345308728
 Si        27.1487138637       27.1429292993       18.9475614690
 Si        27.1434136078       27.1370406219       24.4051610149
 Si        27.1540223002       32.6228057080       18.9808503982
 Si        32.6211134551       16.1803939261       18.9158199879
 Si        32.6196972254       16.2361223857       24.4027185593
 Si        32.6255083729       21.6537852884       13.4861248937
 Si        32.6215797736       21.6753591109       18.9416256748
 Si        32.6342280591       21.6976744939       24.4337526167
 Si        32.6284775399       27.1482717362       18.9794227326
 Si        12.1341223269       14.8488785663       20.3289966133
 Si        12.1216459562       14.8664755311       25.7424758310
 Si        12.1330921027       20.3253051013       14.8529634071
 Si        12.0985140260       20.3092986954       20.3130779828
 Si        12.1055089626       20.3265197949       25.7857614350
 Si        12.1354040505       20.3272562310       31.2301527936
 Si        12.1199216749       25.7390447472       14.8706440355
 Si        12.1048016073       25.7822270875       20.3304417337
 Si        12.1598723181       25.7904825211       25.7943539475
 Si        12.1340883646       31.2266474375       20.3314455056
 Si        17.5698932922        9.3671978220       20.3008568276
 Si        17.6014513035        9.3821774080       25.7628817567
 Si        17.5982552876       14.8577992488       14.8611295021
 Si        17.5941903370       14.8520874378       20.3246085388
 Si        17.5922899350       14.8366151439       25.7766302690
 Si        17.5938854053       14.8528748532       31.1911672027
 Si        17.5674398666       20.2974135085        9.3703249948
 Si        17.5931279432       20.3216027321       14.8553000616
 Si        17.5867140806       20.3169160201       20.3199440936
 Si        17.5866040815       20.3149735443       25.7868844066
 Si        17.5726948978       20.2954184311       31.2766379181
 Si        17.5984328402       25.7598475804        9.3853218263
 Si        17.5904870762       25.7736375317       14.8396884963
 Si        17.5858409886       25.7838958101       20.3181170765
 Si        17.5848870714       25.7789359645       25.7821686362
 Si        17.6141242644       25.7770733572       31.2763019089
 Si        17.5914975775       31.1883566520       14.8560563534
 Si        17.5713778018       31.2736199933       20.2987499511
 Si        17.6134337238       31.2730299087       25.7805431844
 Si        23.0233648502        9.3724053331       14.8494690367
 Si        23.0614976333        9.3795552136       20.3226881940
 Si        23.0877635071        9.3805904382       25.8181561739
 Si        23.0218138196       14.8466527418        9.3747041461
 Si        23.0555583012       14.8523403542       14.8546921099
 Si        23.0549554822       14.8334681653       20.3214300730
 Si        23.0544672840       14.8534130828       25.7880013538
 Si        23.0356414706       14.8609536898       31.2791165853
 Si        23.0590777078       20.3201964587        9.3816595573
 Si        23.0538118391       20.3190860644       14.8355834808
 Si        23.0539481210       20.3134398734       20.3156193989
 Si        23.0487465729       20.3070295788       25.7836912936
 Si        23.0595840476       20.3222855622       31.2798000222
 Si        23.0845384327       25.8155636148        9.3826364443
 Si        23.0526475426       25.7857045071       14.8554038951
 Si        23.0478951849       25.7813986501       20.3092763874
 Si        23.0465137892       25.7742717688       25.7767002669
 Si        23.0323677746       25.7581134598       31.2035150774
 Si        23.0331927291       31.2767336261       14.8630305819
 Si        23.0580383789       31.2773833903       20.3247160120
 Si        23.0314555000       31.2007999440       25.7609957899
 Si        28.5162644056        9.3748205653       20.3438388795
 Si        28.4680327910       14.8523356762       14.8535827531
 Si        28.5174855962       14.8481644777       20.3154765611
 Si        28.5399069752       14.8697364486       25.7765417311
 Si        28.5136778423       20.3420998785        9.3757805641