      53
 i =       35, E =     -1090.2070691316
 cd        -1.5028105406       -1.5459377479       -1.7756986222
 cd         1.5243061265        1.8081140566       -1.3457910736
 cd         3.7354286880        1.3491683982        1.6954267174
 cd         1.1197722692        0.9481753626        4.3585240425
 cd         1.1367207931        3.9861966018        1.9010299788
 cd        -1.1381971003       -4.2847180526        0.7495958194
 cd         1.6843934093       -1.7042128355        1.4232998227
 cd         4.3006892096       -0.8643132027       -1.4614863803
 cd         1.4157282737       -0.7726384357       -4.2075045348
 cd         1.7407026194       -3.8026623386       -1.8654382812
 cd        -3.9922952794       -1.7807199983        0.9370423326
 cd        -1.7568521939        1.3477933508        1.7863398583
 cd        -1.6134835168        3.8954669590       -0.9361866509
 cd        -1.4960389696        1.5276323547       -3.7384443131
 cd        -4.3993594065        1.2994539499       -1.1441482830
 cd        -1.4733609670       -1.9718503723        3.5635859638
 se        -0.0684395576       -0.0314605241        0.0546172217
 se         3.0694101529        3.3577600044        0.2852495506
 se         3.1056767728       -0.4382627845        3.3950096686
 se        -0.4537905377        2.8597848375        3.6051413291
 se        -3.1189531856       -3.5477750576       -0.6975892960
 se         0.2657512307       -3.6858217397        2.8094766523
 se         3.4837683557       -2.9577240977       -0.1472534555
 se         3.2148905903        0.7611977002       -3.1860682732
 se         0.0239726386       -2.8540132679       -3.5715792486
 se        -3.4583778916       -0.4437191668        3.0557479800
 se        -3.5153025140        3.0659785854        0.5477197225
 se        -0.0393551724        3.4732002571       -2.8981917411
 se        -3.3882082445       -0.0836880447       -3.0958621596
  o        -1.0028975020        1.0861108986       -5.8755740177
  o         5.5457115654        0.6112121294        0.4576316446
  o        -0.2461507791        5.3063742941        0.3108038358
  o        -0.5438610532       -0.7073437943        5.2315309073
  o        -5.9304336777       -0.7911847067        0.2373672961
  o         0.3044061782       -5.4550307552       -0.6151330702
  c         0.8910962188       -6.3942361939       -1.2727029981
  o         1.7991476509       -6.1718018243       -2.1115543687
  h         0.5756418205       -7.4331658034       -1.0805726025
  c         6.5785003718        0.2557711963       -0.2037830484
  o         6.5580207611       -0.4666923216       -1.2447416278
  h         7.5623305943        0.6041872001        0.1543995620
  c        -0.2054052861        0.4432562484       -6.6289949219
  o         0.7769682627       -0.3001457451       -6.3199923959
  h        -0.3961319553        0.5445661182       -7.7132026151
  c         0.0755461957        6.3621039527        0.9739198189
  o         0.8592268513        6.3323577086        1.9568756928
  h        -0.3485346997        7.3273633014        0.6504457231
  c        -0.1096160947       -0.4568555899        6.4179327346
  o         0.7869957703        0.3931240588        6.6436978228
  h        -0.5576823873       -1.0080249203        7.2614869847
  c        -6.8292517073       -0.0890435270       -0.3217305171
  o        -6.6377629757        0.9491166180       -1.0219364546
  h        -7.8774431927       -0.4065566878       -0.1820519475
