      66
 i =        0, time =        0.000, E =     -1832.3241390608
 cd        18.5898120160       17.4272174014       15.8236918764
 cd        15.3575206480       18.3491263489       18.2059728140
 cd        15.4923587273       13.8244845341       20.2199187623
 cd        15.7673828758       10.7459384012       19.3425814592
 cd        12.0656211645       11.6635887852       19.2157928727
 cd         9.4524652744       10.4627085976       17.4882948571
 cd         9.7329969091       14.8596790700       17.9845791556
 cd         8.9714536093       16.0282560309       13.8363659576
 cd        10.0398358656       17.1389228401       10.3752795380
 cd        12.2971264391       14.4550814406        8.0557335013
 cd        15.4756245569       12.6521165477        8.2634850924
 cd        16.1766661677        9.8752546730       11.2357470592
 cd        13.5516437369       12.9752732511       11.5628213874
 cd        12.3432651103       16.5947912636       13.3564094484
 cd        14.3882154602       19.3893181700       11.1798907765
 cd        17.2382022401       18.6246086369       12.0362084889
 cd        15.1061755286       19.9922578387       15.3381873215
 cd        11.7003509928       18.2439208966       16.6128626053
 cd        13.4864685269       15.4381161794       17.1755958403
 cd        10.4257939536       12.8049904092       14.8322943031
 cd         8.7513198263       10.3542362822       12.4456444558
 cd        10.9653818074       10.4500532541        9.8947578798
 cd        15.5694248283        8.3647393913       14.3444980847
 cd        18.4709819780       11.4181819920       13.9314510815
 cd        18.1128659194       12.9590526950       10.8755314173
 cd        15.2137159684       16.3099475102        9.2331436213
 cd        19.8531859864       14.5123914207       14.0501516952
 cd        16.1871486950       15.2816088770       13.8128472917
 cd        18.1070281894       13.8945539848       17.5763954835
 cd        14.5766571336       11.4849600695       15.5605156012
 cd         9.0027415544       14.2297796018       10.4267335858
 cd        13.0215564438        8.3370853798       17.0902700817
 cd        12.0505255465        8.9484762808       13.1108152398
 se        17.3093935925       19.2678460022       16.8367537933
 se        15.9199668111       15.6462299940       18.4601474756
 se        17.8119596932       12.5182040955       19.7963379025
 se        14.0079623841       11.7046719908       21.1092874709
 se        11.1568179665        8.9518925984       18.7565667110
 se         9.5974438989       12.4803778692       19.4528079014
 se         8.3804364402       14.4610167225       15.7393720622
 se         7.6856494448       16.2134882724       11.4681324357
 se        10.0059448980       15.5659541549        8.0903958668
 se        14.7192678226       14.8749860552        6.8907125291
 se        17.3403278485       11.0605693561        9.1744334179
 se        14.2203056991       10.6567104605       12.8727849424
 se        11.2475257414       14.1368966616       12.5445933540
 se        12.7791925900       17.5198580772       10.6534106819
 se        16.5063747513       18.4498571560        9.6438561767
 se        15.8391483239       20.8060463552       12.9451943150
 se        13.4563083999       19.9962482247       17.4100404836
 se        11.4234072487       16.7108587153       18.6720401860
 se        12.6993988475       12.9780096114       16.5137076902
 se         9.8648842614       10.2945222933       14.8388799903
 se        10.5584830398        8.2196173922       11.1873415505
 se        12.8679857943       12.0179705554        9.0136657748
 se        15.4119653735        9.3757927601       17.1275677129
 se        17.9398433424        8.9241258914       13.2913914083
 se        20.3143505552       12.6054934714       12.3732102315
 se        15.8506051873       14.2924511123       11.1790407058
 se        18.5012910093       16.8829428927       13.3125956728
 se        14.4607262391       16.8717406215       14.9610647835
 se        20.1915531391       15.3550460434       16.5070679059
 se        16.9174954381       13.0964955419       15.2096082309
 se        10.3624564625       18.3045888720       14.2816692991
 se         8.5502620884       11.6361579607       10.0810116261
 se        13.2450837122        7.1939536448       14.7067348881
      66
 i =        1, time =        1.000, E =     -1832.3239337825
 cd        18.5906291840       17.4254757026       15.8225732061
 cd        15.3560832616       18.3500018419       18.2048870839
 cd        15.4938127533       13.8234849185       20.2191845628
 cd        15.7693866789       10.7453349234       19.3426735974
 cd        12.0649485182       11.6633746811       19.2164226592
 cd         9.4514418003       10.4598002487       17.4909363930
 cd         9.7344981497       14.8579271714       17.9852286060
 cd         8.9717178220       16.0283471273       13.8377413185
 cd        10.0390089085       17.1422594942       10.3753471003
 cd        12.2973742022       14.4553018800        8.0549375677
 cd        15.4755946604       12.6518579355        8.2648997856
 cd        16.1757772382        9.8737680933       11.2364625223
 cd        13.5517355001       12.9767436470       11.5629641254
 cd        12.3415926280       16.5939864371       13.3532909712
 cd        14.3871434437       19.3910873600       11.1802312900
 cd        17.2368790394       18.6244475191       12.0368870918
 cd        15.1076433934       19.9918933945       15.3376853072
 cd        11.6998808304       18.2443757358       16.6146084007
 cd        13.4844719335       15.4366689416       17.1755280854
 cd        10.4265039778       12.8061449269       14.8314534595
 cd         8.7496251977       10.3563970397       12.4439019631
 cd        10.9649799233       10.4504703331        9.8939804285
 cd        15.5677746011        8.3649540353       14.3468473705
 cd        18.4691354603       11.4174771460       13.9322654431
 cd        18.1110350462       12.9584209291       10.8740812820
 cd        15.2153815407       16.3095018080        9.2349025265
 cd        19.8530855994       14.5123789979       14.0497240855
 cd        16.1886979858       15.2801389462       13.8113691218
 cd        18.1064902350       13.8936320693       17.5766827595
 cd        14.5781013329       11.4856876043       15.5578539690
 cd         9.0020108397       14.2292971380       10.4267944550
 cd        13.0199714704        8.3360590639       17.0922301382
 cd        12.0515591524        8.9502275894       13.1095310316
 se        17.3084885127       19.2669381204       16.8354304572
 se        15.9196309861       15.6412634189       18.4594055801
 se        17.8124814304       12.5170004432       19.7978795879
 se        14.0105264380       11.7026552327       21.1084923985
 se        11.1558444505        8.9508744333       18.7567418717
 se         9.5980066010       12.4793374346       19.4553275229
 se         8.3798185702       14.4610540589       15.7387352665
 se         7.6848954189       16.2168217088       11.4685041324
 se        10.0069667999       15.5681353569        8.0915555180
 se        14.7215129946       14.8755653444        6.8920649532
 se        17.3374162963       11.0615662355        9.1765213999
 se        14.2236236421       10.6564791223       12.8703022724
 se        11.2509085627       14.1386107710       12.5467620671
 se        12.7786786780       17.5171750120       10.6513349639
 se        16.5077764253       18.4520088713        9.6457232681
 se        15.8413422813       20.8060417895       12.9458422199
 se        13.4585406989       19.9965520888       17.4075366963
 se        11.4237301608       16.7078674943       18.6730522302
 se        12.6990669014       12.9760629194       16.5136705987
 se         9.8637033705       10.3015669735       14.8361397628
 se        10.5573137510        8.2206355027       11.1862945165
 se        12.8659300320       12.0192446971        9.0125278236
 se        15.4143434025        9.3752260853       17.1284423526
 se        17.9413049414        8.9243149653       13.2910771774
 se        20.3137278346       12.6040524941       12.3718098510
 se        15.8494330453       14.2904598254       11.1806155524
 se        18.5002418151       16.8830352132       13.3105739870
 se        14.4592454679       16.8753598418       14.9626555981
 se        20.1933478463       15.3525286553       16.5079663170
 se        16.9192297078       13.0977781909       15.2101749204
 se        10.3630640173       18.3058309202       14.2817939320
 se         8.5497078969       11.6394957099       10.0816671666
 se        13.2432697541        7.1948664272       14.7051144897
      66
 i =        2, time =        2.000, E =     -1832.3237427869
 cd        18.5914740198       17.4236860872       15.8214917390
 cd        15.3546269988       18.3508198794       18.2038123685
 cd        15.4952416062       13.8224438675       20.2184780831
 cd        15.7714022654       10.7447662743       19.3427694950
 cd        12.0642965520       11.6631487802       19.2170595174
 cd         9.4504350554       10.4569530911       17.4936118555
 cd         9.7360023258       14.8561345694       17.9858687851
 cd         8.9719801173       16.0284992539       13.8391032613
 cd        10.0381914612       17.1455723606       10.3754017909
 cd        12.2976213279       14.4555437130        8.0541256400
 cd        15.4755400079       12.6516331241        8.2662960358
 cd        16.1749420592        9.8723096904       11.2372097520
 cd        13.5517724457       12.9782083101       11.5631023553
 cd        12.3399024676       16.5932068901       13.3501623489
 cd        14.3860970022       19.3928982406       11.1805992145
 cd        17.2355461676       18.6243356005       12.0376110193
 cd        15.1091191788       19.9915056351       15.3371634919
 cd        11.6993595967       18.2448292612       16.6162932264
 cd        13.4824776064       15.4352398442       17.1754720527
 cd        10.4272204186       12.8073919864       14.8306219557
 cd         8.7479633422       10.3585590101       12.4421085887
 cd        10.9645607837       10.4508937028        9.8932083655
 cd        15.5661431689        8.3651657974       14.3492093387
 cd        18.4672769885       11.4167511741       13.9330641400
 cd        18.1092266127       12.9577770253       10.8726569492
 cd        15.2170135644       16.3090083683        9.2366370457
 cd        19.8529924954       14.5123874796       14.0493242616
 cd        16.1902545692       15.2786901451       13.8098673363
 cd        18.1059680038       13.8927289868       17.5769701241
 cd        14.5795841648       11.4864239914       15.5552030151
 cd         9.0013022778       14.2287737798       10.4268277183
 cd        13.0183358775        8.3350421334       17.0941827083
 cd        12.0526005494        8.9519699154       13.1082816655
 se        17.3076203338       19.2661682804       16.8341420153
 se        15.9192503406       15.6363787374       18.4586631996
 se        17.8130030434       12.5157625600       19.7993962977
 se        14.0130973899       11.7006832229       21.1076203389
 se        11.1549206786        8.9498502655       18.7569253636
 se         9.5985158084       12.4783189646       19.4577473868
 se         8.3792158660       14.4609964672       15.7381374904
 se         7.6842210940       16.2202083219       11.4688938679
 se        10.0079677178       15.5703071386        8.0927862531
 se        14.7237622042       14.8761077629        6.8935502695
 se        17.3345126875       11.0625226353        9.1785904160
 se        14.2268958412       10.6562640525       12.8678218745
 se        11.2543418222       14.1403048650       12.5489137236
 se        12.7780935297       17.5144252759       10.6492632063
 se        16.5091700409       18.4542264530        9.6474788215
 se        15.8435106210       20.8059893555       12.9464562735
 se        13.4607932231       19.9968996367       17.4050475963
 se        11.4241027064       16.7048165268       18.6740618044
 se        12.6986918348       12.9740852129       16.5136741525
 se         9.8625126223       10.3085110405       14.8333574648
 se        10.5560972018        8.2217008145       11.1852423510
 se        12.8639088462       12.0205074415        9.0114110975
 se        15.4167658659        9.3746828796       17.1292978128
 se        17.9426928716        8.9244913617       13.2907187522
 se        20.3130551300       12.6026219230       12.3703852970
 se        15.8482649763       14.2885390587       11.1822174309
 se        18.4992372805       16.8830233802       13.3085384809
 se        14.4577381801       16.8789527706       14.9642254499
 se        20.1950942036       15.3500026189       16.5088590662
 se        16.9209346485       13.0990161949       15.2107592787
 se        10.3637314443       18.3070264620       14.2819223151
 se         8.5491471048       11.6428007503       10.0823800818
 se        13.2414990069        7.1957590012       14.7034937461
      66
 i =        3, time =        3.000, E =     -1832.3235678088
 cd        18.5923454267       17.4218506192       15.8204487487
 cd        15.3531542151       18.3515782318       18.2027498180
 cd        15.4966436244       13.8213615197       20.2178008797
 cd        15.7734281063       10.7442326591       19.3428689675
 cd        12.0636668285       11.6629112915       19.2177031780
 cd         9.4494455829       10.4541700085       17.4963170093
 cd         9.7375071036       14.8543023270       17.9864984095
 cd         8.9722401667       16.0287130996       13.8404499144
 cd        10.0373837990       17.1488580559       10.3754437453
 cd        12.2978675594       14.4558073734        8.0532984488
 cd        15.4754597184       12.6514428697        8.2676721589
 cd        16.1741623237        9.8708801530       11.2379875789
 cd        13.5517540925       12.9796653079       11.5632358201
 cd        12.3381975617       16.5924541754       13.3470277545
 cd        14.3850760546       19.3947474036       11.1809937380
 cd        17.2342049247       18.6242734060       12.0383802072
 cd        15.1106016567       19.9910948208       15.3366214728
 cd        11.6987880942       18.2452807270       16.6179157754
 cd        13.4804879092       15.4338302605       17.1754273105
 cd        10.4279430706       12.8087325702       14.8298007748
 cd         8.7463356833       10.3607202172       12.4402663819
 cd        10.9641245896       10.4513231670        9.8924423402
 cd        15.5645334945        8.3653748061       14.3515813297
 cd        18.4654090960       11.4160050261       13.9338459251
 cd        18.1074434407       12.9571218212       10.8712607891
 cd        15.2186113546       16.3084689465        9.2383459174
 cd        19.8529070492       14.5124160539       14.0489521150
 cd        16.1918150246       15.2772659540       13.8083447168
 cd        18.1054622916       13.8918453909       17.5772580778
 cd        14.5811042099       11.4871683636       15.5525657798
 cd         9.0006160873       14.2282132621       10.4268340848
 cd        13.0166537108        8.3340357599       17.0961246239
 cd        12.0536480127        8.9537019418       13.1070674854
 se        17.3067916392       19.2655350499       16.8328894454
 se        15.9188248758       15.6315835628       18.4579192683
 se        17.8135252824       12.5144916263       19.8008862158
 se        14.0156715398       11.6987576170       21.1066724441
 se        11.1540471409        8.9488202046       18.7571184811
 se         9.5989705847       12.4773234133       19.4600654311
 se         8.3786292896       14.4608440441       15.7375807711
 se         7.6836287878       16.2236431693       11.4693008245
 se        10.0089465443       15.5724672234        8.0940865780
 se        14.7260131470       14.8766126115        6.8951669125
 se        17.3316207701       11.0634356627        9.1806371328
 se        14.2301171386       10.6560660620       12.8653473146
 se        11.2578211308       14.1419766278       12.5510454564
 se        12.7774403466       17.5116148329       10.6471980971
 se        16.5105524440       18.4565058265        9.6491194980
 se        15.8456507464       20.8058898036       12.9470356799
 se        13.4630611660       19.9972913149       17.4025765224
 se        11.4245250298       16.7017104149       18.6750677238
 se        12.6982746353       12.9720780276       16.5137181325
 se         9.8613124489       10.3153443781       14.8305377979
 se        10.5548350707        8.2228127290       11.1841867582
 se        12.8619245984       12.0217572768        9.0103169568
 se        15.4192273627        9.3741626674       17.1301320601
 se        17.9440040642        8.9246540090       13.2903173253
 se        20.3123317556       12.6012039746       12.3689387215
 se        15.8471025977       14.2866918700       11.1838442834
 se        18.4982793452       16.8829064078       13.3064923873
 se        14.4562071023       16.8825128263       14.9657705839
 se        20.1967899439       15.3474709040       16.5097444573
 se        16.9226079343       13.1002080739       15.2113606785
 se        10.3644576817       18.3081740466       14.2820545793
 se         8.5485800594       11.6460684311       10.0831485335
 se        13.2397725527        7.1966307954       14.7018757739
      66
 i =        4, time =        4.000, E =     -1832.3234095166
 cd        18.5932469428       17.4199615541       15.8194399582
 cd        15.3516593705       18.3522787576       18.2016948627
 cd        15.4980246750       13.8202322036       20.2171508695
 cd        15.7754735656       10.7437314232       19.3429723304
 cd        12.0630575183       11.6626611409       19.2183568154
 cd         9.4484686261       10.4514390013       17.4990621565
 cd         9.7390182423       14.8524216564       17.9871195727
 cd         8.9724990145       16.0289905012       13.8417866810
 cd        10.0365818788       17.1521308056       10.3754733218
 cd        12.2981139448       14.4560947158        8.0524522864
 cd        15.4753524876       12.6512868994        8.2690338633
 cd        16.1734355907        9.8694725103       11.2387990197
 cd        13.5516798322       12.9811205227       11.5633649726
 cd        12.3364716908       16.5917258441       13.3438745267
 cd        14.3840750295       19.3966413356       11.1814161382
 cd        17.2328494173       18.6242611103       12.0391987034
 cd        15.1120975592       19.9906589805       15.3360559451
 cd        11.6981640496       18.2457318209       16.6194834515
 cd        13.4784945179       15.4324339967       17.1753931848
 cd        10.4286756211       12.8101748843       14.8289865054
 cd         8.7447349403       10.3628902544       12.4383675018
 cd        10.9636692121       10.4517608420        9.8916788881
 cd        15.5629398772        8.3655823011       14.3539734404
 cd        18.4635242687       11.4152356260       13.9346137377
 cd        18.1056787701       12.9564526470       10.8698876775
 cd        15.2201828018       16.3078824092        9.2400370660
 cd        19.8528291854       14.5124640560       14.0486055413
 cd        16.1933843619       15.2758621724       13.8067958296
 cd        18.1049711810       13.8909772067       17.5775486722
 cd        14.5826682185       11.4879238698       15.5499311622
 cd         8.9999488283       14.2276162899       10.4268142786
 cd        13.0149199710        8.3330357111       17.0980631030
 cd        12.0547054274        8.9554316339       13.1058823483
 se        17.3060006136       19.2650336002       16.8316670011
 se        15.9183523074       15.6268597656       18.4571687528
 se        17.8140516985       12.5131820156       19.8023555030
 se        14.0182589638       11.6968697872       21.1056447753
 se        11.1532196489        8.9477788595       18.7573236041
 se         9.5993724020       12.4763463707       19.4622920031
 se         8.3780566637       14.4605960631       15.7370640847
 se         7.6831176451       16.2271397911       11.4697263828
 se        10.0099074026       15.5746249034        8.0954619954
 se        14.7282756048       14.8770819010        6.8969220283
 se        17.3287287544       11.0643073260        9.1826691871
 se        14.2332996051       10.6558849350       12.8628689112
 se        11.2613607807       14.1436326770       12.5531658351
 se        12.7767188458       17.5087346061       10.6451312759
 se        16.5119278485       18.4588551451        9.6506507683
 se        15.8477715415       20.8057433506       12.9475827582
 se        13.4653518528       19.9977296648       17.4001135390
 se        11.4249995752       16.6985370694       18.6760741756
 se        12.6978140405       12.9700321015       16.5138025880
 se         9.8600968620       10.3220935382       14.8276702740
 se        10.5535222393        8.2239766318       11.1831237877
 se        12.8599689910       12.0229993998        9.0092408750
 se        15.4217357209        9.3736622141       17.1309475563
 se        17.9452424951        8.9248027131       13.2898718794
 se        20.3115531390       12.5997932731       12.3674645314
 se        15.8459412994       14.2849114110       11.1855028004
 se        18.4973647847       16.8826826799       13.3044279144
 se        14.4546466792       16.8860525380       14.9672955741
 se        20.1984418952       15.3449228651       16.5106255804
 se        16.9242562089       13.1013587342       15.2119817232
 se        10.3652455852       18.3092783681       14.2821915498
 se         8.5480040472       11.6493116080       10.0839748022
 se        13.2380822430        7.1974858885       14.7002550021