      66
 i =        4, time =        4.000, E =     -1832.3234095166
 cd        18.5932469428       17.4199615541       15.8194399582
 cd        15.3516593705       18.3522787576       18.2016948627
 cd        15.4980246750       13.8202322036       20.2171508695
 cd        15.7754735656       10.7437314232       19.3429723304
 cd        12.0630575183       11.6626611409       19.2183568154
 cd         9.4484686261       10.4514390013       17.4990621565
 cd         9.7390182423       14.8524216564       17.9871195727
 cd         8.9724990145       16.0289905012       13.8417866810
 cd        10.0365818788       17.1521308056       10.3754733218
 cd        12.2981139448       14.4560947158        8.0524522864
 cd        15.4753524876       12.6512868994        8.2690338633
 cd        16.1734355907        9.8694725103       11.2387990197
 cd        13.5516798322       12.9811205227       11.5633649726
 cd        12.3364716908       16.5917258441       13.3438745267
 cd        14.3840750295       19.3966413356       11.1814161382
 cd        17.2328494173       18.6242611103       12.0391987034
 cd        15.1120975592       19.9906589805       15.3360559451
 cd        11.6981640496       18.2457318209       16.6194834515
 cd        13.4784945179       15.4324339967       17.1753931848
 cd        10.4286756211       12.8101748843       14.8289865054
 cd         8.7447349403       10.3628902544       12.4383675018
 cd        10.9636692121       10.4517608420        9.8916788881
 cd        15.5629398772        8.3655823011       14.3539734404
 cd        18.4635242687       11.4152356260       13.9346137377
 cd        18.1056787701       12.9564526470       10.8698876775
 cd        15.2201828018       16.3078824092        9.2400370660
 cd        19.8528291854       14.5124640560       14.0486055413
 cd        16.1933843619       15.2758621724       13.8067958296
 cd        18.1049711810       13.8909772067       17.5775486722
 cd        14.5826682185       11.4879238698       15.5499311622
 cd         8.9999488283       14.2276162899       10.4268142786
 cd        13.0149199710        8.3330357111       17.0980631030
 cd        12.0547054274        8.9554316339       13.1058823483
 se        17.3060006136       19.2650336002       16.8316670011
 se        15.9183523074       15.6268597656       18.4571687528
 se        17.8140516985       12.5131820156       19.8023555030
 se        14.0182589638       11.6968697872       21.1056447753
 se        11.1532196489        8.9477788595       18.7573236041
 se         9.5993724020       12.4763463707       19.4622920031
 se         8.3780566637       14.4605960631       15.7370640847
 se         7.6831176451       16.2271397911       11.4697263828
 se        10.0099074026       15.5746249034        8.0954619954
 se        14.7282756048       14.8770819010        6.8969220283
 se        17.3287287544       11.0643073260        9.1826691871
 se        14.2332996051       10.6558849350       12.8628689112
 se        11.2613607807       14.1436326770       12.5531658351
 se        12.7767188458       17.5087346061       10.6451312759
 se        16.5119278485       18.4588551451        9.6506507683
 se        15.8477715415       20.8057433506       12.9475827582
 se        13.4653518528       19.9977296648       17.4001135390
 se        11.4249995752       16.6985370694       18.6760741756
 se        12.6978140405       12.9700321015       16.5138025880
 se         9.8600968620       10.3220935382       14.8276702740
 se        10.5535222393        8.2239766318       11.1831237877
 se        12.8599689910       12.0229993998        9.0092408750
 se        15.4217357209        9.3736622141       17.1309475563
 se        17.9452424951        8.9248027131       13.2898718794
 se        20.3115531390       12.5997932731       12.3674645314
 se        15.8459412994       14.2849114110       11.1855028004
 se        18.4973647847       16.8826826799       13.3044279144
 se        14.4546466792       16.8860525380       14.9672955741
 se        20.1984418952       15.3449228651       16.5106255804
 se        16.9242562089       13.1013587342       15.2119817232
 se        10.3652455852       18.3092783681       14.2821915498
 se         8.5480040472       11.6493116080       10.0839748022
 se        13.2380822430        7.1974858885       14.7002550021
