      11
 i =     3001, time =     7502.500, E =      -165.1356506873
 Cs         7.8701409392        9.6660050015        6.6482661943
 Br        10.9187618443        8.3876209963        7.1984434365
 Cs         6.2608776317       11.4116770933       11.0813522912
 Cs        13.7390852308        8.0140733236        8.6671305677
 Br         7.4358300190        8.3962817416        9.6845734196
 Br         8.2629490822       12.3601536883        8.6793745720
 Br        11.6688800884        7.6410827528       11.8044364885
 Pb        10.1350476788        9.7551945463       10.2223485720
 Br         9.0337520064       10.4886442246       13.0290203469
 Br        13.0585414639       11.0124822328       10.0996884347
 Cs        12.4974781763       10.5355659254       13.3561721165
      11
 i =     3002, time =     7505.000, E =      -165.1355557522
 Cs         7.8656224636        9.6705623792        6.6533431923
 Br        10.9189726047        8.3763133218        7.1973151119
 Cs         6.2612504899       11.4141771292       11.0836289078
 Cs        13.7387565131        8.0163647347        8.6638372227
 Br         7.4307360717        8.3960305667        9.6872627006
 Br         8.2662862347       12.3575963110        8.6797433531
 Br        11.6699789456        7.6448612175       11.8083528311
 Pb        10.1351539134        9.7502464256       10.2187679529
 Br         9.0380793876       10.4918021602       13.0345107465
 Br        13.0577445184       11.0136287860       10.0961465530
 Cs        12.5022088087       10.5310008195       13.3555301668
      11
 i =     3003, time =     7507.500, E =      -165.1354575297
 Cs         7.8610952654        9.6751399746        6.6582713851
 Br        10.9189849454        8.3651003252        7.1962239262
 Cs         6.2616073196       11.4166251639       11.0860150135
 Cs        13.7385335886        8.0185983177        8.6606556673
 Br         7.4256327189        8.3957889668        9.6901342744
 Br         8.2697885717       12.3549942524        8.6800933270
 Br        11.6710638688        7.6486621596       11.8119929767
 Pb        10.1352090135        9.7452302085       10.2151712144
 Br         9.0424860331       10.4950779961       13.0397987962
 Br        13.0569076503       11.0148807216       10.0925724028
 Cs        12.5069430448       10.5264682402       13.3550308249
      11
 i =     3004, time =     7510.000, E =      -165.1353580624
 Cs         7.8565637166        9.6797315312        6.6630476877
 Br        10.9187830495        8.3539874562        7.1951688055
 Cs         6.2619519741       11.4190207939       11.0885114103
 Cs        13.7384208638        8.0207735894        8.6575869465
 Br         7.4205223928        8.3955578550        9.6931875711
 Br         8.2734552776       12.3523526625        8.6804300580
 Br        11.6721334635        7.6524745058       11.8153507327
 Pb        10.1352132931        9.7401490407       10.2115638352
 Br         9.0469701217       10.4984697239       13.0448721626
 Br        13.0560260630       11.0162350332       10.0889678084
 Cs        12.5116813781       10.5219737162       13.3546740236
      11
 i =     3005, time =     7512.500, E =      -165.1352599039
 Cs         7.8520317931        9.6843308108        6.6676696167
 Br        10.9183522199        8.3429795591        7.1941491256
 Cs         6.2622884289       11.4213637949       11.0911187852
 Cs        13.7384222848        8.0228902990        8.6546318271
 Br         7.4154070182        8.3953383019        9.6964214182
 Br         8.2772854185       12.3496762444        8.6807591408
 Br        11.6731861265        7.6562861807       11.8184199028
 Pb        10.1351671611        9.7350061573       10.2079510013
 Br         9.0515296692       10.5019756811       13.0497191350
 Br        13.0550951028       11.0176885207       10.0853348513
 Cs        12.5164245105       10.5175226931       13.3544594579
